<?xml version="1.0" encoding="UTF-8"?>

<!-- generated on 2024-02-27 11:04:39 by Eclipse SUMO GUI Version 1.17.0
<configuration xmlns:xsi="http://www.w3.org/2001/XMLSchema-instance" xsi:noNamespaceSchemaLocation="http://sumo.dlr.de/xsd/sumoConfiguration.xsd">

    <input>
        <net-file value="C:\Users\PCX\Desktop\EPN\EPN PROYECTO SUMO\pr치cticas\p12\maps/cruz.net.xml"/>
        <route-files value="C:\Users\PCX\Desktop\EPN\EPN PROYECTO SUMO\pr치cticas\p12\maps/cruz.rou.xml"/>
    </input>

    <output>
        <emission-output value="C:\Users\PCX\Desktop\EPN\EPN PROYECTO SUMO\pr치cticas\p12\emissions-co2.xml"/>
        <tripinfo-output value="C:\Users\PCX\Desktop\EPN\EPN PROYECTO SUMO\pr치cticas\p12\tripinfo-emissions.xml"/>
    </output>

    <time>
        <begin value="0"/>
        <end value="200"/>
    </time>

    <report>
        <verbose value="true"/>
        <no-step-log value="true"/>
    </report>

</configuration>
-->

<emission-export xmlns:xsi="http://www.w3.org/2001/XMLSchema-instance" xsi:noNamespaceSchemaLocation="http://sumo.dlr.de/xsd/emission_file.xsd">
    <timestep time="0.00"/>
    <timestep time="1.00"/>
    <timestep time="2.00">
        <vehicle id="2" eclass="HBEFA3/PC_G_EU4" CO2="2624.72" CO="164.78" HC="0.81" NOx="1.20" PMx="0.07" fuel="837.22" electricity="0.00" noise="55.94" route="!2" type="taxi" waiting="0.00" lane="E2_0" pos="5.10" speed="0.00" angle="90.00" x="112.30" y="98.40"/>
    </timestep>
    <timestep time="3.00">
        <vehicle id="2" eclass="HBEFA3/PC_G_EU4" CO2="3063.54" CO="147.54" HC="0.74" NOx="1.37" PMx="0.07" fuel="977.17" electricity="0.00" noise="63.32" route="!2" type="taxi" waiting="0.00" lane="E2_0" pos="6.64" speed="1.54" angle="90.00" x="113.84" y="98.40"/>
        <vehicle id="3" eclass="HBEFA3/PC_G_EU4" CO2="2624.72" CO="164.78" HC="0.81" NOx="1.20" PMx="0.07" fuel="837.22" electricity="0.00" noise="55.94" route="!3" type="taxi" waiting="0.00" lane="E5_0" pos="5.10" speed="0.00" angle="180.00" x="98.40" y="194.90"/>
    </timestep>
    <timestep time="4.00">
        <vehicle id="2" eclass="HBEFA3/PC_G_EU4" CO2="3387.32" CO="132.05" HC="0.68" NOx="1.48" PMx="0.07" fuel="1080.44" electricity="0.00" noise="63.27" route="!2" type="taxi" waiting="0.00" lane="E2_0" pos="9.59" speed="2.95" angle="90.00" x="116.79" y="98.40"/>
        <vehicle id="3" eclass="HBEFA3/PC_G_EU4" CO2="3201.94" CO="147.37" HC="0.75" NOx="1.43" PMx="0.07" fuel="1021.31" electricity="0.00" noise="64.20" route="!3" type="taxi" waiting="0.00" lane="E5_0" pos="6.83" speed="1.73" angle="180.00" x="98.40" y="193.17"/>
        <vehicle id="4" eclass="HBEFA3/PC_G_EU4" CO2="2624.72" CO="164.78" HC="0.81" NOx="1.20" PMx="0.07" fuel="837.22" electricity="0.00" noise="55.94" route="!4" type="taxi" waiting="0.00" lane="-E7_0" pos="5.10" speed="0.00" angle="0.00" x="101.60" y="-94.90"/>
    </timestep>
    <timestep time="5.00">
        <vehicle id="2" eclass="HBEFA3/PC_G_EU4" CO2="4827.67" CO="132.37" HC="0.72" NOx="2.11" PMx="0.10" fuel="1539.82" electricity="0.00" noise="66.94" route="!2" type="taxi" waiting="0.00" lane="E2_0" pos="14.57" speed="4.99" angle="90.00" x="121.77" y="98.40"/>
        <vehicle id="3" eclass="HBEFA3/PC_G_EU4" CO2="3554.73" CO="131.16" HC="0.68" NOx="1.55" PMx="0.07" fuel="1133.83" electricity="0.00" noise="63.84" route="!3" type="taxi" waiting="0.00" lane="E5_0" pos="10.06" speed="3.23" angle="180.00" x="98.40" y="189.94"/>
        <vehicle id="4" eclass="HBEFA3/PC_G_EU4" CO2="3518.08" CO="148.19" HC="0.76" NOx="1.57" PMx="0.08" fuel="1122.15" electricity="0.00" noise="65.90" route="!4" type="taxi" waiting="0.00" lane="-E7_0" pos="7.18" speed="2.08" angle="0.00" x="101.60" y="-92.82"/>
    </timestep>
    <timestep time="6.00">
        <vehicle id="2" eclass="HBEFA3/PC_G_EU4" CO2="4784.10" CO="111.36" HC="0.62" NOx="2.05" PMx="0.09" fuel="1525.92" electricity="0.00" noise="65.61" route="!2" type="taxi" waiting="0.00" lane="E2_0" pos="21.13" speed="6.55" angle="90.00" x="128.33" y="98.40"/>
        <vehicle id="3" eclass="HBEFA3/PC_G_EU4" CO2="6066.30" CO="146.89" HC="0.81" NOx="2.67" PMx="0.13" fuel="1934.88" electricity="0.00" noise="69.69" route="!3" type="taxi" waiting="0.00" lane="E5_0" pos="15.88" speed="5.82" angle="180.00" x="98.40" y="184.12"/>
        <vehicle id="4" eclass="HBEFA3/PC_G_EU4" CO2="5322.22" CO="147.02" HC="0.80" NOx="2.35" PMx="0.11" fuel="1697.56" electricity="0.00" noise="69.14" route="!4" type="taxi" waiting="0.00" lane="-E7_0" pos="11.84" speed="4.66" angle="0.00" x="101.60" y="-88.16"/>
    </timestep>
    <timestep time="7.00">
        <vehicle id="2" eclass="HBEFA3/PC_G_EU4" CO2="5810.09" CO="112.68" HC="0.65" NOx="2.48" PMx="0.11" fuel="1853.15" electricity="0.00" noise="67.12" route="!2" type="taxi" waiting="0.00" lane="E2_0" pos="29.40" speed="8.28" angle="90.00" x="136.60" y="98.40"/>
        <vehicle id="3" eclass="HBEFA3/PC_G_EU4" CO2="7222.67" CO="142.39" HC="0.82" NOx="3.15" PMx="0.15" fuel="2303.69" electricity="0.00" noise="69.93" route="!3" type="taxi" waiting="0.00" lane="E5_0" pos="24.10" speed="8.22" angle="180.00" x="98.40" y="175.90"/>
        <vehicle id="4" eclass="HBEFA3/PC_G_EU4" CO2="4267.73" CO="107.30" HC="0.59" NOx="1.82" PMx="0.08" fuel="1361.23" electricity="0.00" noise="64.50" route="!4" type="taxi" waiting="0.00" lane="-E7_0" pos="17.86" speed="6.02" angle="0.00" x="101.60" y="-82.14"/>
        <vehicle id="7" eclass="HBEFA3/PC_G_EU4" CO2="2624.72" CO="164.78" HC="0.81" NOx="1.20" PMx="0.07" fuel="837.22" electricity="0.00" noise="55.94" route="!7" type="taxi" waiting="0.00" lane="E1_0" pos="5.10" speed="0.00" angle="90.00" x="5.10" y="98.40"/>
    </timestep>
    <timestep time="8.00">
        <vehicle id="2" eclass="HBEFA3/PC_G_EU4" CO2="6657.96" CO="112.68" HC="0.67" NOx="2.84" PMx="0.13" fuel="2123.57" electricity="0.00" noise="68.06" route="!2" type="taxi" waiting="0.00" lane="E2_0" pos="39.42" speed="10.02" angle="90.00" x="146.62" y="98.40"/>
        <vehicle id="3" eclass="HBEFA3/PC_G_EU4" CO2="8399.40" CO="144.06" HC="0.86" NOx="3.65" PMx="0.18" fuel="2679.00" electricity="0.00" noise="70.56" route="!3" type="taxi" waiting="0.00" lane="E5_0" pos="34.61" speed="10.51" angle="180.00" x="98.40" y="165.39"/>
        <vehicle id="4" eclass="HBEFA3/PC_G_EU4" CO2="6797.18" CO="133.62" HC="0.77" NOx="2.95" PMx="0.14" fuel="2167.98" electricity="0.00" noise="69.08" route="!4" type="taxi" waiting="0.00" lane="-E7_0" pos="26.08" speed="8.22" angle="0.00" x="101.60" y="-73.92"/>
        <vehicle id="7" eclass="HBEFA3/PC_G_EU4" CO2="3619.69" CO="148.69" HC="0.76" NOx="1.61" PMx="0.08" fuel="1154.55" electricity="0.00" noise="66.38" route="!7" type="taxi" waiting="0.00" lane="E1_0" pos="7.28" speed="2.18" angle="90.00" x="7.28" y="98.40"/>
    </timestep>
    <timestep time="9.00">
        <vehicle id="2" eclass="HBEFA3/PC_G_EU4" CO2="9604.78" CO="154.15" HC="0.93" NOx="4.17" PMx="0.20" fuel="3063.45" electricity="0.00" noise="71.49" route="!2" type="taxi" waiting="0.00" lane="E2_0" pos="51.74" speed="12.32" angle="90.00" x="158.94" y="98.40"/>
        <vehicle id="3" eclass="HBEFA3/PC_G_EU4" CO2="10407.68" CO="166.34" HC="1.01" NOx="4.54" PMx="0.22" fuel="3319.53" electricity="0.00" noise="72.27" route="!3" type="taxi" waiting="0.00" lane="E5_0" pos="47.53" speed="12.93" angle="180.00" x="98.40" y="152.47"/>
        <vehicle id="4" eclass="HBEFA3/PC_G_EU4" CO2="8332.35" CO="142.85" HC="0.85" NOx="3.62" PMx="0.17" fuel="2657.61" electricity="0.00" noise="70.47" route="!4" type="taxi" waiting="0.00" lane="-E7_0" pos="36.57" speed="10.49" angle="0.00" x="101.60" y="-63.43"/>
        <vehicle id="7" eclass="HBEFA3/PC_G_EU4" CO2="5133.05" CO="143.65" HC="0.78" NOx="2.26" PMx="0.11" fuel="1637.22" electricity="0.00" noise="68.52" route="!7" type="taxi" waiting="0.00" lane="E1_0" pos="11.90" speed="4.62" angle="90.00" x="11.90" y="98.40"/>
        <vehicle id="9" eclass="HBEFA3/PC_G_EU4" CO2="2624.72" CO="164.78" HC="0.81" NOx="1.20" PMx="0.07" fuel="837.22" electricity="0.00" noise="55.94" route="!9" type="taxi" waiting="0.00" lane="E4_0" pos="5.10" speed="0.00" angle="180.00" x="98.40" y="294.90"/>
    </timestep>
    <timestep time="10.00">
        <vehicle id="2" eclass="HBEFA3/PC_G_EU4" CO2="8320.79" CO="116.72" HC="0.73" NOx="3.52" PMx="0.17" fuel="2653.92" electricity="0.00" noise="69.73" route="!2" type="taxi" waiting="0.00" lane="E2_0" pos="65.70" speed="13.96" angle="90.00" x="172.90" y="98.40"/>
        <vehicle id="3" eclass="HBEFA3/PC_G_EU4" CO2="2182.43" CO="0.00" HC="0.03" NOx="0.65" PMx="0.01" fuel="696.11" electricity="0.00" noise="63.82" route="!3" type="taxi" waiting="0.00" lane="E5_0" pos="60.44" speed="12.90" angle="180.00" x="98.40" y="139.56"/>
        <vehicle id="4" eclass="HBEFA3/PC_G_EU4" CO2="7412.24" CO="110.37" HC="0.68" NOx="3.14" PMx="0.15" fuel="2364.14" electricity="0.00" noise="68.77" route="!4" type="taxi" waiting="0.00" lane="-E7_0" pos="48.71" speed="12.14" angle="0.00" x="101.60" y="-51.29"/>
        <vehicle id="7" eclass="HBEFA3/PC_G_EU4" CO2="5957.96" CO="132.57" HC="0.75" NOx="2.59" PMx="0.12" fuel="1900.32" electricity="0.00" noise="68.32" route="!7" type="taxi" waiting="0.00" lane="E1_0" pos="18.70" speed="6.80" angle="90.00" x="18.70" y="98.40"/>
        <vehicle id="9" eclass="HBEFA3/PC_G_EU4" CO2="3089.80" CO="147.47" HC="0.74" NOx="1.38" PMx="0.07" fuel="985.55" electricity="0.00" noise="63.49" route="!9" type="taxi" waiting="0.00" lane="E4_0" pos="6.68" speed="1.58" angle="180.00" x="98.40" y="293.32"/>
    </timestep>
    <timestep time="11.00">
        <vehicle id="11" eclass="HBEFA3/PC_G_EU4" CO2="2624.72" CO="164.78" HC="0.81" NOx="1.20" PMx="0.07" fuel="837.22" electricity="0.00" noise="55.94" route="!11" type="taxi" waiting="0.00" lane="-E6_0" pos="5.10" speed="0.00" angle="0.00" x="101.60" y="5.10"/>
        <vehicle id="2" eclass="HBEFA3/PC_G_EU4" CO2="1899.07" CO="0.00" HC="0.00" NOx="0.50" PMx="0.00" fuel="605.73" electricity="0.00" noise="64.26" route="!2" type="taxi" waiting="0.00" lane="E2_0" pos="79.54" speed="13.84" angle="90.00" x="186.74" y="98.40"/>
        <vehicle id="3" eclass="HBEFA3/PC_G_EU4" CO2="1985.37" CO="0.00" HC="0.01" NOx="0.56" PMx="0.00" fuel="633.26" electricity="0.00" noise="63.62" route="!3" type="taxi" waiting="0.00" lane="E5_0" pos="73.26" speed="12.82" angle="180.00" x="98.40" y="126.74"/>
        <vehicle id="4" eclass="HBEFA3/PC_G_EU4" CO2="6698.23" CO="86.84" HC="0.56" NOx="2.77" PMx="0.13" fuel="2136.41" electricity="0.00" noise="68.02" route="!4" type="taxi" waiting="0.00" lane="-E7_0" pos="62.11" speed="13.40" angle="0.00" x="101.60" y="-37.89"/>
        <vehicle id="7" eclass="HBEFA3/PC_G_EU4" CO2="5067.50" CO="98.31" HC="0.57" NOx="2.14" PMx="0.09" fuel="1616.30" electricity="0.00" noise="65.72" route="!7" type="taxi" waiting="0.00" lane="E1_0" pos="26.89" speed="8.19" angle="90.00" x="26.89" y="98.40"/>
        <vehicle id="9" eclass="HBEFA3/PC_G_EU4" CO2="4684.96" CO="143.81" HC="0.77" NOx="2.07" PMx="0.10" fuel="1494.31" electricity="0.00" noise="67.96" route="!9" type="taxi" waiting="0.00" lane="E4_0" pos="10.64" speed="3.96" angle="180.00" x="98.40" y="289.36"/>
    </timestep>
    <timestep time="12.00">
        <vehicle id="10" eclass="HBEFA3/PC_G_EU4" CO2="2624.72" CO="164.78" HC="0.81" NOx="1.20" PMx="0.07" fuel="837.22" electricity="0.00" noise="55.94" route="!10" type="taxi" waiting="0.00" lane="E4_0" pos="5.10" speed="0.00" angle="180.00" x="98.40" y="294.90"/>
        <vehicle id="11" eclass="HBEFA3/PC_G_EU4" CO2="3126.29" CO="147.41" HC="0.74" NOx="1.40" PMx="0.07" fuel="997.19" electricity="0.00" noise="63.73" route="!11" type="taxi" waiting="0.00" lane="-E6_0" pos="6.73" speed="1.63" angle="0.00" x="101.60" y="6.73"/>
        <vehicle id="2" eclass="HBEFA3/PC_G_EU4" CO2="1578.95" CO="0.00" HC="0.00" NOx="0.35" PMx="0.00" fuel="503.63" electricity="0.00" noise="63.93" route="!2" type="taxi" waiting="0.00" lane="E3_0" pos="0.27" speed="13.63" angle="90.00" x="200.27" y="98.40"/>
        <vehicle id="3" eclass="HBEFA3/PC_G_EU4" CO2="0.00" CO="0.00" HC="0.00" NOx="0.00" PMx="0.00" fuel="0.00" electricity="0.00" noise="60.17" route="!3" type="taxi" waiting="0.00" lane="E5_0" pos="84.72" speed="11.45" angle="180.00" x="98.40" y="115.28"/>
        <vehicle id="4" eclass="HBEFA3/PC_G_EU4" CO2="0.00" CO="0.00" HC="0.00" NOx="0.00" PMx="0.00" fuel="0.00" electricity="0.00" noise="62.71" route="!4" type="taxi" waiting="0.00" lane="-E7_0" pos="74.98" speed="12.87" angle="0.00" x="101.60" y="-25.02"/>
        <vehicle id="7" eclass="HBEFA3/PC_G_EU4" CO2="5586.44" CO="94.71" HC="0.56" NOx="2.35" PMx="0.10" fuel="1781.81" electricity="0.00" noise="66.44" route="!7" type="taxi" waiting="0.00" lane="E1_0" pos="36.48" speed="9.59" angle="90.00" x="36.48" y="98.40"/>
        <vehicle id="9" eclass="HBEFA3/PC_G_EU4" CO2="4485.23" CO="117.62" HC="0.64" NOx="1.93" PMx="0.09" fuel="1430.60" electricity="0.00" noise="65.35" route="!9" type="taxi" waiting="0.00" lane="E4_0" pos="16.20" speed="5.57" angle="180.00" x="98.40" y="283.80"/>
    </timestep>
    <timestep time="13.00">
        <vehicle id="10" eclass="HBEFA3/PC_G_EU4" CO2="3651.27" CO="148.86" HC="0.76" NOx="1.63" PMx="0.08" fuel="1164.62" electricity="0.00" noise="66.52" route="!10" type="taxi" waiting="0.00" lane="E4_0" pos="7.31" speed="2.21" angle="180.00" x="98.40" y="292.69"/>
        <vehicle id="11" eclass="HBEFA3/PC_G_EU4" CO2="3680.79" CO="133.21" HC="0.69" NOx="1.61" PMx="0.08" fuel="1174.04" electricity="0.00" noise="64.44" route="!11" type="taxi" waiting="0.00" lane="-E6_0" pos="10.00" speed="3.27" angle="0.00" x="101.60" y="10.00"/>
        <vehicle id="13" eclass="HBEFA3/PC_G_EU4" CO2="2624.72" CO="164.78" HC="0.81" NOx="1.20" PMx="0.07" fuel="837.22" electricity="0.00" noise="55.94" route="!13" type="taxi" waiting="0.00" lane="-E2_0" pos="5.10" speed="0.00" angle="270.00" x="194.90" y="101.60"/>
        <vehicle id="2" eclass="HBEFA3/PC_G_EU4" CO2="3510.13" CO="17.71" HC="0.16" NOx="1.25" PMx="0.04" fuel="1119.58" electricity="0.00" noise="65.41" route="!2" type="taxi" waiting="0.00" lane="E3_0" pos="14.23" speed="13.95" angle="90.00" x="214.23" y="98.40"/>
        <vehicle id="3" eclass="HBEFA3/PC_G_EU4" CO2="0.00" CO="0.00" HC="0.00" NOx="0.00" PMx="0.00" fuel="0.00" electricity="0.00" noise="53.22" route="!3" type="taxi" waiting="0.00" lane="E5_0" pos="92.05" speed="7.34" angle="180.00" x="98.40" y="107.95"/>
        <vehicle id="4" eclass="HBEFA3/PC_G_EU4" CO2="0.00" CO="0.00" HC="0.00" NOx="0.00" PMx="0.00" fuel="0.00" electricity="0.00" noise="60.38" route="!4" type="taxi" waiting="0.00" lane="-E7_0" pos="86.55" speed="11.57" angle="0.00" x="101.60" y="-13.45"/>
        <vehicle id="7" eclass="HBEFA3/PC_G_EU4" CO2="8376.26" CO="134.13" HC="0.81" NOx="3.61" PMx="0.17" fuel="2671.61" electricity="0.00" noise="70.10" route="!7" type="taxi" waiting="0.00" lane="E1_0" pos="48.11" speed="11.63" angle="90.00" x="48.11" y="98.40"/>
        <vehicle id="9" eclass="HBEFA3/PC_G_EU4" CO2="6673.62" CO="135.49" HC="0.78" NOx="2.90" PMx="0.14" fuel="2128.57" electricity="0.00" noise="69.11" route="!9" type="taxi" waiting="0.00" lane="E4_0" pos="24.02" speed="7.82" angle="180.00" x="98.40" y="275.98"/>
    </timestep>
    <timestep time="14.00">
        <vehicle id="10" eclass="HBEFA3/PC_G_EU4" CO2="3778.74" CO="127.83" HC="0.67" NOx="1.65" PMx="0.08" fuel="1205.27" electricity="0.00" noise="64.31" route="!10" type="taxi" waiting="0.00" lane="E4_0" pos="11.08" speed="3.77" angle="180.00" x="98.40" y="288.92"/>
        <vehicle id="11" eclass="HBEFA3/PC_G_EU4" CO2="4425.52" CO="123.95" HC="0.67" NOx="1.92" PMx="0.09" fuel="1411.56" electricity="0.00" noise="65.59" route="!11" type="taxi" waiting="0.00" lane="-E6_0" pos="15.00" speed="5.00" angle="0.00" x="101.60" y="15.00"/>
        <vehicle id="13" eclass="HBEFA3/PC_G_EU4" CO2="3847.49" CO="150.11" HC="0.77" NOx="1.72" PMx="0.09" fuel="1227.21" electricity="0.00" noise="67.37" route="!13" type="taxi" waiting="0.00" lane="-E2_0" pos="7.49" speed="2.39" angle="270.00" x="192.51" y="101.60"/>
        <vehicle id="14" eclass="HBEFA3/PC_G_EU4" CO2="2624.72" CO="164.78" HC="0.81" NOx="1.20" PMx="0.07" fuel="837.22" electricity="0.00" noise="55.94" route="!14" type="taxi" waiting="0.00" lane="E5_0" pos="5.10" speed="0.00" angle="180.00" x="98.40" y="194.90"/>
        <vehicle id="2" eclass="HBEFA3/PC_G_EU4" CO2="0.00" CO="0.00" HC="0.00" NOx="0.00" PMx="0.00" fuel="0.00" electricity="0.00" noise="63.52" route="!2" type="taxi" waiting="0.00" lane="E3_0" pos="27.80" speed="13.57" angle="90.00" x="227.80" y="98.40"/>
        <vehicle id="3" eclass="HBEFA3/PC_G_EU4" CO2="0.00" CO="0.00" HC="0.00" NOx="0.00" PMx="0.00" fuel="0.00" electricity="0.00" noise="53.37" route="!3" type="taxi" waiting="0.00" lane=":J2_0_0" pos="4.93" speed="5.68" angle="201.44" x="96.64" y="102.78"/>
        <vehicle id="4" eclass="HBEFA3/PC_G_EU4" CO2="0.00" CO="0.00" HC="0.00" NOx="0.00" PMx="0.00" fuel="0.00" electricity="0.00" noise="57.35" route="!4" type="taxi" waiting="0.00" lane="-E7_0" pos="96.05" speed="9.50" angle="0.00" x="101.60" y="-3.95"/>
        <vehicle id="7" eclass="HBEFA3/PC_G_EU4" CO2="10241.01" CO="157.07" HC="0.96" NOx="4.43" PMx="0.22" fuel="3266.37" electricity="0.00" noise="71.81" route="!7" type="taxi" waiting="0.00" lane="E1_0" pos="61.93" speed="13.83" angle="90.00" x="61.93" y="98.40"/>
        <vehicle id="9" eclass="HBEFA3/PC_G_EU4" CO2="7682.29" CO="134.28" HC="0.80" NOx="3.32" PMx="0.16" fuel="2450.28" electricity="0.00" noise="69.69" route="!9" type="taxi" waiting="0.00" lane="E4_0" pos="33.98" speed="9.96" angle="180.00" x="98.40" y="266.02"/>
    </timestep>
    <timestep time="15.00">
        <vehicle id="10" eclass="HBEFA3/PC_G_EU4" CO2="3925.51" CO="112.36" HC="0.60" NOx="1.68" PMx="0.08" fuel="1252.08" electricity="0.00" noise="63.89" route="!10" type="taxi" waiting="0.00" lane="E4_0" pos="16.18" speed="5.09" angle="180.00" x="98.40" y="283.82"/>
        <vehicle id="11" eclass="HBEFA3/PC_G_EU4" CO2="5228.69" CO="117.90" HC="0.66" NOx="2.25" PMx="0.10" fuel="1667.72" electricity="0.00" noise="66.58" route="!11" type="taxi" waiting="0.00" lane="-E6_0" pos="21.76" speed="6.77" angle="0.00" x="101.60" y="21.76"/>
        <vehicle id="13" eclass="HBEFA3/PC_G_EU4" CO2="3554.12" CO="123.79" HC="0.65" NOx="1.54" PMx="0.07" fuel="1133.63" electricity="0.00" noise="63.35" route="!13" type="taxi" waiting="0.00" lane="-E2_0" pos="11.22" speed="3.73" angle="270.00" x="188.78" y="101.60"/>
        <vehicle id="14" eclass="HBEFA3/PC_G_EU4" CO2="3245.91" CO="147.40" HC="0.75" NOx="1.45" PMx="0.07" fuel="1035.34" electricity="0.00" noise="64.46" route="!14" type="taxi" waiting="0.00" lane="E5_0" pos="6.88" speed="1.78" angle="180.00" x="98.40" y="193.12"/>
        <vehicle id="15" eclass="HBEFA3/PC_G_EU4" CO2="2624.72" CO="164.78" HC="0.81" NOx="1.20" PMx="0.07" fuel="837.22" electricity="0.00" noise="55.94" route="!15" type="taxi" waiting="0.00" lane="E4_0" pos="5.10" speed="0.00" angle="180.00" x="98.40" y="294.90"/>
        <vehicle id="2" eclass="HBEFA3/PC_G_EU4" CO2="2631.02" CO="1.43" HC="0.07" NOx="0.85" PMx="0.02" fuel="839.18" electricity="0.00" noise="64.62" route="!2" type="taxi" waiting="0.00" lane="E3_0" pos="41.46" speed="13.66" angle="90.00" x="241.46" y="98.40"/>
        <vehicle id="3" eclass="HBEFA3/PC_G_EU4" CO2="0.00" CO="0.00" HC="0.00" NOx="0.00" PMx="0.00" fuel="0.00" electricity="0.00" noise="57.78" route="!3" type="taxi" waiting="0.00" lane="-E1_0" pos="1.36" speed="5.46" angle="258.86" x="91.44" y="101.60"/>
        <vehicle id="4" eclass="HBEFA3/PC_G_EU4" CO2="0.00" CO="0.00" HC="0.00" NOx="0.00" PMx="0.00" fuel="0.00" electricity="0.00" noise="54.08" route="!4" type="taxi" waiting="0.00" lane="-E6_0" pos="3.12" speed="7.17" angle="0.00" x="101.60" y="3.12"/>
        <vehicle id="7" eclass="HBEFA3/PC_G_EU4" CO2="2849.44" CO="4.05" HC="0.08" NOx="0.94" PMx="0.02" fuel="908.85" electricity="0.00" noise="64.95" route="!7" type="taxi" waiting="0.00" lane="E1_0" pos="75.90" speed="13.96" angle="90.00" x="75.90" y="98.40"/>
        <vehicle id="9" eclass="HBEFA3/PC_G_EU4" CO2="7380.12" CO="113.29" HC="0.69" NOx="3.14" PMx="0.15" fuel="2353.90" electricity="0.00" noise="68.78" route="!9" type="taxi" waiting="0.00" lane="E4_0" pos="45.66" speed="11.67" angle="180.00" x="98.40" y="254.34"/>
    </timestep>
    <timestep time="16.00">
        <vehicle id="10" eclass="HBEFA3/PC_G_EU4" CO2="5136.26" CO="115.57" HC="0.65" NOx="2.21" PMx="0.10" fuel="1638.24" electricity="0.00" noise="66.34" route="!10" type="taxi" waiting="0.00" lane="E4_0" pos="22.98" speed="6.80" angle="180.00" x="98.40" y="277.02"/>
        <vehicle id="11" eclass="HBEFA3/PC_G_EU4" CO2="6599.89" CO="123.99" HC="0.72" NOx="2.85" PMx="0.13" fuel="2105.05" electricity="0.00" noise="68.41" route="!11" type="taxi" waiting="0.00" lane="-E6_0" pos="30.51" speed="8.75" angle="0.00" x="101.60" y="30.51"/>
        <vehicle id="13" eclass="HBEFA3/PC_G_EU4" CO2="4717.93" CO="123.07" HC="0.67" NOx="2.04" PMx="0.09" fuel="1504.82" electricity="0.00" noise="66.07" route="!13" type="taxi" waiting="0.00" lane="-E2_0" pos="16.74" speed="5.52" angle="270.00" x="183.26" y="101.60"/>
        <vehicle id="14" eclass="HBEFA3/PC_G_EU4" CO2="4715.54" CO="142.26" HC="0.76" NOx="2.08" PMx="0.10" fuel="1504.06" electricity="0.00" noise="67.80" route="!14" type="taxi" waiting="0.00" lane="E5_0" pos="10.99" speed="4.11" angle="180.00" x="98.40" y="189.01"/>
        <vehicle id="15" eclass="HBEFA3/PC_G_EU4" CO2="3946.26" CO="150.83" HC="0.78" NOx="1.76" PMx="0.09" fuel="1258.71" electricity="0.00" noise="67.77" route="!15" type="taxi" waiting="0.00" lane="E4_0" pos="7.57" speed="2.47" angle="180.00" x="98.40" y="292.43"/>
        <vehicle id="16" eclass="HBEFA3/PC_G_EU4" CO2="2624.72" CO="164.78" HC="0.81" NOx="1.20" PMx="0.07" fuel="837.22" electricity="0.00" noise="55.94" route="!16" type="taxi" waiting="0.00" lane="E0_0" pos="5.10" speed="0.00" angle="90.00" x="-94.90" y="98.40"/>
        <vehicle id="2" eclass="HBEFA3/PC_G_EU4" CO2="4754.41" CO="41.32" HC="0.30" NOx="1.83" PMx="0.07" fuel="1516.43" electricity="0.00" noise="66.52" route="!2" type="taxi" waiting="0.00" lane="E3_0" pos="55.75" speed="14.30" angle="90.00" x="255.75" y="98.40"/>
        <vehicle id="3" eclass="HBEFA3/PC_G_EU4" CO2="5478.00" CO="117.34" HC="0.66" NOx="2.35" PMx="0.11" fuel="1747.23" electricity="0.00" noise="66.89" route="!3" type="taxi" waiting="0.00" lane="-E1_0" pos="8.61" speed="7.25" angle="270.00" x="84.19" y="101.60"/>
        <vehicle id="4" eclass="HBEFA3/PC_G_EU4" CO2="4659.32" CO="88.22" HC="0.51" NOx="1.94" PMx="0.08" fuel="1486.12" electricity="0.00" noise="64.94" route="!4" type="taxi" waiting="0.00" lane="-E6_0" pos="11.47" speed="8.35" angle="0.00" x="101.60" y="11.47"/>
        <vehicle id="7" eclass="HBEFA3/PC_G_EU4" CO2="3442.75" CO="14.56" HC="0.15" NOx="1.22" PMx="0.04" fuel="1098.08" electricity="0.00" noise="65.52" route="!7" type="taxi" waiting="0.00" lane="E1_0" pos="90.15" speed="14.25" angle="90.00" x="90.15" y="98.40"/>
        <vehicle id="9" eclass="HBEFA3/PC_G_EU4" CO2="9810.96" CO="148.63" HC="0.91" NOx="4.23" PMx="0.21" fuel="3129.21" electricity="0.00" noise="71.34" route="!9" type="taxi" waiting="0.00" lane="E4_0" pos="59.41" speed="13.76" angle="180.00" x="98.40" y="240.59"/>
    </timestep>
    <timestep time="17.00">
        <vehicle id="10" eclass="HBEFA3/PC_G_EU4" CO2="5072.92" CO="98.34" HC="0.57" NOx="2.14" PMx="0.09" fuel="1618.03" electricity="0.00" noise="65.73" route="!10" type="taxi" waiting="0.00" lane="E4_0" pos="31.18" speed="8.20" angle="180.00" x="98.40" y="268.82"/>
        <vehicle id="11" eclass="HBEFA3/PC_G_EU4" CO2="6903.77" CO="113.41" HC="0.68" NOx="2.94" PMx="0.14" fuel="2201.97" electricity="0.00" noise="68.32" route="!11" type="taxi" waiting="0.00" lane="-E6_0" pos="41.00" speed="10.49" angle="0.00" x="101.60" y="41.00"/>
        <vehicle id="13" eclass="HBEFA3/PC_G_EU4" CO2="6247.60" CO="129.03" HC="0.74" NOx="2.71" PMx="0.13" fuel="1992.70" electricity="0.00" noise="68.36" route="!13" type="taxi" waiting="0.00" lane="-E2_0" pos="24.35" speed="7.61" angle="270.00" x="175.65" y="101.60"/>
        <vehicle id="14" eclass="HBEFA3/PC_G_EU4" CO2="5256.03" CO="126.90" HC="0.70" NOx="2.28" PMx="0.11" fuel="1676.44" electricity="0.00" noise="67.14" route="!14" type="taxi" waiting="0.00" lane="E5_0" pos="17.07" speed="6.08" angle="180.00" x="98.40" y="182.93"/>
        <vehicle id="15" eclass="HBEFA3/PC_G_EU4" CO2="4481.17" CO="132.74" HC="0.71" NOx="1.96" PMx="0.09" fuel="1429.31" electricity="0.00" noise="66.38" route="!15" type="taxi" waiting="0.00" lane="E4_0" pos="12.01" speed="4.44" angle="180.00" x="98.40" y="287.99"/>
        <vehicle id="16" eclass="HBEFA3/PC_G_EU4" CO2="3044.17" CO="147.60" HC="0.74" NOx="1.36" PMx="0.07" fuel="970.99" electricity="0.00" noise="63.18" route="!16" type="taxi" waiting="0.00" lane="E0_0" pos="6.61" speed="1.51" angle="90.00" x="-93.39" y="98.40"/>
        <vehicle id="2" eclass="HBEFA3/PC_G_EU4" CO2="0.00" CO="0.00" HC="0.00" NOx="0.00" PMx="0.00" fuel="0.00" electricity="0.00" noise="62.22" route="!2" type="taxi" waiting="0.00" lane="E3_0" pos="69.01" speed="13.26" angle="90.00" x="269.01" y="98.40"/>
        <vehicle id="3" eclass="HBEFA3/PC_G_EU4" CO2="6835.60" CO="124.01" HC="0.73" NOx="2.94" PMx="0.14" fuel="2180.23" electricity="0.00" noise="68.61" route="!3" type="taxi" waiting="0.00" lane="-E1_0" pos="17.84" speed="9.22" angle="270.00" x="74.96" y="101.60"/>
        <vehicle id="4" eclass="HBEFA3/PC_G_EU4" CO2="2398.95" CO="40.20" HC="0.24" NOx="0.87" PMx="0.02" fuel="765.18" electricity="0.00" noise="61.15" route="!4" type="taxi" waiting="0.00" lane="-E6_0" pos="19.96" speed="8.49" angle="0.00" x="101.60" y="19.96"/>
        <vehicle id="9" eclass="HBEFA3/PC_G_EU4" CO2="0.00" CO="0.00" HC="0.00" NOx="0.00" PMx="0.00" fuel="0.00" electricity="0.00" noise="62.22" route="!9" type="taxi" waiting="0.00" lane="E4_0" pos="72.34" speed="12.92" angle="180.00" x="98.40" y="227.66"/>
    </timestep>
    <timestep time="18.00">
        <vehicle id="10" eclass="HBEFA3/PC_G_EU4" CO2="6392.67" CO="108.64" HC="0.65" NOx="2.72" PMx="0.12" fuel="2038.96" electricity="0.00" noise="67.68" route="!10" type="taxi" waiting="0.00" lane="E4_0" pos="41.04" speed="9.87" angle="180.00" x="98.40" y="258.96"/>
        <vehicle id="11" eclass="HBEFA3/PC_G_EU4" CO2="10093.89" CO="160.51" HC="0.97" NOx="4.39" PMx="0.22" fuel="3219.45" electricity="0.00" noise="71.92" route="!11" type="taxi" waiting="0.00" lane="-E6_0" pos="53.84" speed="12.84" angle="0.00" x="101.60" y="53.84"/>
        <vehicle id="13" eclass="HBEFA3/PC_G_EU4" CO2="5694.75" CO="101.48" HC="0.60" NOx="2.41" PMx="0.11" fuel="1816.36" electricity="0.00" noise="66.68" route="!13" type="taxi" waiting="0.00" lane="-E2_0" pos="33.47" speed="9.13" angle="270.00" x="166.53" y="101.60"/>
        <vehicle id="14" eclass="HBEFA3/PC_G_EU4" CO2="7076.14" CO="137.76" HC="0.80" NOx="3.08" PMx="0.15" fuel="2256.95" electricity="0.00" noise="69.53" route="!14" type="taxi" waiting="0.00" lane="E5_0" pos="25.44" speed="8.37" angle="180.00" x="98.40" y="174.56"/>
        <vehicle id="15" eclass="HBEFA3/PC_G_EU4" CO2="6447.79" CO="141.80" HC="0.80" NOx="2.82" PMx="0.13" fuel="2056.55" electricity="0.00" noise="69.44" route="!15" type="taxi" waiting="0.00" lane="E4_0" pos="18.88" speed="6.87" angle="180.00" x="98.40" y="281.12"/>
        <vehicle id="16" eclass="HBEFA3/PC_G_EU4" CO2="4353.38" CO="140.75" HC="0.74" NOx="1.92" PMx="0.09" fuel="1388.55" electricity="0.00" noise="66.99" route="!16" type="taxi" waiting="0.00" lane="E0_0" pos="10.31" speed="3.70" angle="90.00" x="-89.69" y="98.40"/>
        <vehicle id="18" eclass="HBEFA3/PC_G_EU4" CO2="2624.72" CO="164.78" HC="0.81" NOx="1.20" PMx="0.07" fuel="837.22" electricity="0.00" noise="55.94" route="!18" type="taxi" waiting="0.00" lane="E4_0" pos="5.10" speed="0.00" angle="180.00" x="98.40" y="294.90"/>
        <vehicle id="2" eclass="HBEFA3/PC_G_EU4" CO2="1755.58" CO="0.00" HC="0.00" NOx="0.45" PMx="0.00" fuel="559.97" electricity="0.00" noise="63.66" route="!2" type="taxi" waiting="0.00" lane="E3_0" pos="82.11" speed="13.11" angle="90.00" x="282.11" y="98.40"/>
        <vehicle id="3" eclass="HBEFA3/PC_G_EU4" CO2="7065.44" CO="112.79" HC="0.68" NOx="3.01" PMx="0.14" fuel="2253.54" electricity="0.00" noise="68.47" route="!3" type="taxi" waiting="0.00" lane="-E1_0" pos="28.78" speed="10.95" angle="270.00" x="64.02" y="101.60"/>
        <vehicle id="4" eclass="HBEFA3/PC_G_EU4" CO2="9049.31" CO="153.89" HC="0.92" NOx="3.95" PMx="0.19" fuel="2886.28" electricity="0.00" noise="71.33" route="!4" type="taxi" waiting="0.00" lane="-E6_0" pos="30.87" speed="10.92" angle="0.00" x="101.60" y="30.87"/>
        <vehicle id="9" eclass="HBEFA3/PC_G_EU4" CO2="3866.93" CO="28.69" HC="0.22" NOx="1.44" PMx="0.05" fuel="1233.38" electricity="0.00" noise="65.39" route="!9" type="taxi" waiting="0.00" lane="E4_0" pos="85.71" speed="13.37" angle="180.00" x="98.40" y="214.29"/>
    </timestep>
    <timestep time="19.00">
        <vehicle id="10" eclass="HBEFA3/PC_G_EU4" CO2="9737.45" CO="157.56" HC="0.95" NOx="4.24" PMx="0.21" fuel="3105.76" electricity="0.00" noise="71.69" route="!10" type="taxi" waiting="0.00" lane="E4_0" pos="53.27" speed="12.23" angle="180.00" x="98.40" y="246.73"/>
        <vehicle id="11" eclass="HBEFA3/PC_G_EU4" CO2="2668.66" CO="6.81" HC="0.09" NOx="0.88" PMx="0.02" fuel="851.19" electricity="0.00" noise="64.21" route="!11" type="taxi" waiting="0.00" lane="-E6_0" pos="66.79" speed="12.96" angle="0.00" x="101.60" y="66.79"/>